% Model:              QPC-symmetric-brige.mph
% Version:            COMSOL 6.0.0.318
% Date:               Jul 8 2025, 10:59
% Dimension:          3
% Nodes:              465
% Expressions:        297
% Description:        Electric potential
% Length unit:        nm
% x                       y                        z                        V (V) @ 1: VQPC=-4 V, VSG=-1.5 V V (V) @ 2: VQPC=-4 V, VSG=-1.35 V V (V) @ 3: VQPC=-4 V, VSG=-1.2 V V (V) @ 4: VQPC=-4 V, VSG=-1.05 V V (V) @ 5: VQPC=-4 V, VSG=-0.9 V V (V) @ 6: VQPC=-4 V, VSG=-0.75 V V (V) @ 7: VQPC=-4 V, VSG=-0.6 V V (V) @ 8: VQPC=-4 V, VSG=-0.45 V V (V) @ 9: VQPC=-4 V, VSG=-0.3 V V (V) @ 10: VQPC=-4 V, VSG=-0.15 V V (V) @ 11: VQPC=-4 V, VSG=0 V V (V) @ 12: VQPC=-3.7 V, VSG=-1.5 V V (V) @ 13: VQPC=-3.7 V, VSG=-1.35 V V (V) @ 14: VQPC=-3.7 V, VSG=-1.2 V V (V) @ 15: VQPC=-3.7 V, VSG=-1.05 V V (V) @ 16: VQPC=-3.7 V, VSG=-0.9 V V (V) @ 17: VQPC=-3.7 V, VSG=-0.75 V V (V) @ 18: VQPC=-3.7 V, VSG=-0.6 V V (V) @ 19: VQPC=-3.7 V, VSG=-0.45 V V (V) @ 20: VQPC=-3.7 V, VSG=-0.3 V V (V) @ 21: VQPC=-3.7 V, VSG=-0.15 V V (V) @ 22: VQPC=-3.7 V, VSG=0 V V (V) @ 23: VQPC=-3.4 V, VSG=-1.5 V V (V) @ 24: VQPC=-3.4 V, VSG=-1.35 V V (V) @ 25: VQPC=-3.4 V, VSG=-1.2 V V (V) @ 26: VQPC=-3.4 V, VSG=-1.05 V V (V) @ 27: VQPC=-3.4 V, VSG=-0.9 V V (V) @ 28: VQPC=-3.4 V, VSG=-0.75 V V (V) @ 29: VQPC=-3.4 V, VSG=-0.6 V V (V) @ 30: VQPC=-3.4 V, VSG=-0.45 V V (V) @ 31: VQPC=-3.4 V, VSG=-0.3 V V (V) @ 32: VQPC=-3.4 V, VSG=-0.15 V V (V) @ 33: VQPC=-3.4 V, VSG=0 V V (V) @ 34: VQPC=-3.1 V, VSG=-1.5 V V (V) @ 35: VQPC=-3.1 V, VSG=-1.35 V V (V) @ 36: VQPC=-3.1 V, VSG=-1.2 V V (V) @ 37: VQPC=-3.1 V, VSG=-1.05 V V (V) @ 38: VQPC=-3.1 V, VSG=-0.9 V V (V) @ 39: VQPC=-3.1 V, VSG=-0.75 V V (V) @ 40: VQPC=-3.1 V, VSG=-0.6 V V (V) @ 41: VQPC=-3.1 V, VSG=-0.45 V V (V) @ 42: VQPC=-3.1 V, VSG=-0.3 V V (V) @ 43: VQPC=-3.1 V, VSG=-0.15 V V (V) @ 44: VQPC=-3.1 V, VSG=0 V V (V) @ 45: VQPC=-2.8 V, VSG=-1.5 V V (V) @ 46: VQPC=-2.8 V, VSG=-1.35 V V (V) @ 47: VQPC=-2.8 V, VSG=-1.2 V V (V) @ 48: VQPC=-2.8 V, VSG=-1.05 V V (V) @ 49: VQPC=-2.8 V, VSG=-0.9 V V (V) @ 50: VQPC=-2.8 V, VSG=-0.75 V V (V) @ 51: VQPC=-2.8 V, VSG=-0.6 V V (V) @ 52: VQPC=-2.8 V, VSG=-0.45 V V (V) @ 53: VQPC=-2.8 V, VSG=-0.3 V V (V) @ 54: VQPC=-2.8 V, VSG=-0.15 V V (V) @ 55: VQPC=-2.8 V, VSG=0 V V (V) @ 56: VQPC=-2.5 V, VSG=-1.5 V V (V) @ 57: VQPC=-2.5 V, VSG=-1.35 V V (V) @ 58: VQPC=-2.5 V, VSG=-1.2 V V (V) @ 59: VQPC=-2.5 V, VSG=-1.05 V V (V) @ 60: VQPC=-2.5 V, VSG=-0.9 V V (V) @ 61: VQPC=-2.5 V, VSG=-0.75 V V (V) @ 62: VQPC=-2.5 V, VSG=-0.6 V V (V) @ 63: VQPC=-2.5 V, VSG=-0.45 V V (V) @ 64: VQPC=-2.5 V, VSG=-0.3 V V (V) @ 65: VQPC=-2.5 V, VSG=-0.15 V V (V) @ 66: VQPC=-2.5 V, VSG=0 V V (V) @ 67: VQPC=-2.2 V, VSG=-1.5 V V (V) @ 68: VQPC=-2.2 V, VSG=-1.35 V V (V) @ 69: VQPC=-2.2 V, VSG=-1.2 V V (V) @ 70: VQPC=-2.2 V, VSG=-1.05 V V (V) @ 71: VQPC=-2.2 V, VSG=-0.9 V V (V) @ 72: VQPC=-2.2 V, VSG=-0.75 V V (V) @ 73: VQPC=-2.2 V, VSG=-0.6 V V (V) @ 74: VQPC=-2.2 V, VSG=-0.45 V V (V) @ 75: VQPC=-2.2 V, VSG=-0.3 V V (V) @ 76: VQPC=-2.2 V, VSG=-0.15 V V (V) @ 77: VQPC=-2.2 V, VSG=0 V V (V) @ 78: VQPC=-1.9 V, VSG=-1.5 V V (V) @ 79: VQPC=-1.9 V, VSG=-1.35 V V (V) @ 80: VQPC=-1.9 V, VSG=-1.2 V V (V) @ 81: VQPC=-1.9 V, VSG=-1.05 V V (V) @ 82: VQPC=-1.9 V, VSG=-0.9 V V (V) @ 83: VQPC=-1.9 V, VSG=-0.75 V V (V) @ 84: VQPC=-1.9 V, VSG=-0.6 V V (V) @ 85: VQPC=-1.9 V, VSG=-0.45 V V (V) @ 86: VQPC=-1.9 V, VSG=-0.3 V V (V) @ 87: VQPC=-1.9 V, VSG=-0.15 V V (V) @ 88: VQPC=-1.9 V, VSG=0 V V (V) @ 89: VQPC=-1.6 V, VSG=-1.5 V V (V) @ 90: VQPC=-1.6 V, VSG=-1.35 V V (V) @ 91: VQPC=-1.6 V, VSG=-1.2 V V (V) @ 92: VQPC=-1.6 V, VSG=-1.05 V V (V) @ 93: VQPC=-1.6 V, VSG=-0.9 V V (V) @ 94: VQPC=-1.6 V, VSG=-0.75 V V (V) @ 95: VQPC=-1.6 V, VSG=-0.6 V V (V) @ 96: VQPC=-1.6 V, VSG=-0.45 V V (V) @ 97: VQPC=-1.6 V, VSG=-0.3 V V (V) @ 98: VQPC=-1.6 V, VSG=-0.15 V V (V) @ 99: VQPC=-1.6 V, VSG=0 V V (V) @ 100: VQPC=-1.3 V, VSG=-1.5 V V (V) @ 101: VQPC=-1.3 V, VSG=-1.35 V V (V) @ 102: VQPC=-1.3 V, VSG=-1.2 V V (V) @ 103: VQPC=-1.3 V, VSG=-1.05 V V (V) @ 104: VQPC=-1.3 V, VSG=-0.9 V V (V) @ 105: VQPC=-1.3 V, VSG=-0.75 V V (V) @ 106: VQPC=-1.3 V, VSG=-0.6 V V (V) @ 107: VQPC=-1.3 V, VSG=-0.45 V V (V) @ 108: VQPC=-1.3 V, VSG=-0.3 V V (V) @ 109: VQPC=-1.3 V, VSG=-0.15 V V (V) @ 110: VQPC=-1.3 V, VSG=0 V V (V) @ 111: VQPC=-1 V, VSG=-1.5 V V (V) @ 112: VQPC=-1 V, VSG=-1.35 V V (V) @ 113: VQPC=-1 V, VSG=-1.2 V V (V) @ 114: VQPC=-1 V, VSG=-1.05 V V (V) @ 115: VQPC=-1 V, VSG=-0.9 V V (V) @ 116: VQPC=-1 V, VSG=-0.75 V V (V) @ 117: VQPC=-1 V, VSG=-0.6 V V (V) @ 118: VQPC=-1 V, VSG=-0.45 V V (V) @ 119: VQPC=-1 V, VSG=-0.3 V V (V) @ 120: VQPC=-1 V, VSG=-0.15 V V (V) @ 121: VQPC=-1 V, VSG=0 V V (V) @ 122: VQPC=-0.7 V, VSG=-1.5 V V (V) @ 123: VQPC=-0.7 V, VSG=-1.35 V V (V) @ 124: VQPC=-0.7 V, VSG=-1.2 V V (V) @ 125: VQPC=-0.7 V, VSG=-1.05 V V (V) @ 126: VQPC=-0.7 V, VSG=-0.9 V V (V) @ 127: VQPC=-0.7 V, VSG=-0.75 V V (V) @ 128: VQPC=-0.7 V, VSG=-0.6 V V (V) @ 129: VQPC=-0.7 V, VSG=-0.45 V V (V) @ 130: VQPC=-0.7 V, VSG=-0.3 V V (V) @ 131: VQPC=-0.7 V, VSG=-0.15 V V (V) @ 132: VQPC=-0.7 V, VSG=0 V V (V) @ 133: VQPC=-0.4 V, VSG=-1.5 V V (V) @ 134: VQPC=-0.4 V, VSG=-1.35 V V (V) @ 135: VQPC=-0.4 V, VSG=-1.2 V V (V) @ 136: VQPC=-0.4 V, VSG=-1.05 V V (V) @ 137: VQPC=-0.4 V, VSG=-0.9 V V (V) @ 138: VQPC=-0.4 V, VSG=-0.75 V V (V) @ 139: VQPC=-0.4 V, VSG=-0.6 V V (V) @ 140: VQPC=-0.4 V, VSG=-0.45 V V (V) @ 141: VQPC=-0.4 V, VSG=-0.3 V V (V) @ 142: VQPC=-0.4 V, VSG=-0.15 V V (V) @ 143: VQPC=-0.4 V, VSG=0 V V (V) @ 144: VQPC=-0.1 V, VSG=-1.5 V V (V) @ 145: VQPC=-0.1 V, VSG=-1.35 V V (V) @ 146: VQPC=-0.1 V, VSG=-1.2 V V (V) @ 147: VQPC=-0.1 V, VSG=-1.05 V V (V) @ 148: VQPC=-0.1 V, VSG=-0.9 V V (V) @ 149: VQPC=-0.1 V, VSG=-0.75 V V (V) @ 150: VQPC=-0.1 V, VSG=-0.6 V V (V) @ 151: VQPC=-0.1 V, VSG=-0.45 V V (V) @ 152: VQPC=-0.1 V, VSG=-0.3 V V (V) @ 153: VQPC=-0.1 V, VSG=-0.15 V V (V) @ 154: VQPC=-0.1 V, VSG=0 V V (V) @ 155: VQPC=0.2 V, VSG=-1.5 V V (V) @ 156: VQPC=0.2 V, VSG=-1.35 V V (V) @ 157: VQPC=0.2 V, VSG=-1.2 V V (V) @ 158: VQPC=0.2 V, VSG=-1.05 V V (V) @ 159: VQPC=0.2 V, VSG=-0.9 V V (V) @ 160: VQPC=0.2 V, VSG=-0.75 V V (V) @ 161: VQPC=0.2 V, VSG=-0.6 V V (V) @ 162: VQPC=0.2 V, VSG=-0.45 V V (V) @ 163: VQPC=0.2 V, VSG=-0.3 V V (V) @ 164: VQPC=0.2 V, VSG=-0.15 V V (V) @ 165: VQPC=0.2 V, VSG=0 V V (V) @ 166: VQPC=0.5 V, VSG=-1.5 V V (V) @ 167: VQPC=0.5 V, VSG=-1.35 V V (V) @ 168: VQPC=0.5 V, VSG=-1.2 V V (V) @ 169: VQPC=0.5 V, VSG=-1.05 V V (V) @ 170: VQPC=0.5 V, VSG=-0.9 V V (V) @ 171: VQPC=0.5 V, VSG=-0.75 V V (V) @ 172: VQPC=0.5 V, VSG=-0.6 V V (V) @ 173: VQPC=0.5 V, VSG=-0.45 V V (V) @ 174: VQPC=0.5 V, VSG=-0.3 V V (V) @ 175: VQPC=0.5 V, VSG=-0.15 V V (V) @ 176: VQPC=0.5 V, VSG=0 V V (V) @ 177: VQPC=0.8 V, VSG=-1.5 V V (V) @ 178: VQPC=0.8 V, VSG=-1.35 V V (V) @ 179: VQPC=0.8 V, VSG=-1.2 V V (V) @ 180: VQPC=0.8 V, VSG=-1.05 V V (V) @ 181: VQPC=0.8 V, VSG=-0.9 V V (V) @ 182: VQPC=0.8 V, VSG=-0.75 V V (V) @ 183: VQPC=0.8 V, VSG=-0.6 V V (V) @ 184: VQPC=0.8 V, VSG=-0.45 V V (V) @ 185: VQPC=0.8 V, VSG=-0.3 V V (V) @ 186: VQPC=0.8 V, VSG=-0.15 V V (V) @ 187: VQPC=0.8 V, VSG=0 V V (V) @ 188: VQPC=1.1 V, VSG=-1.5 V V (V) @ 189: VQPC=1.1 V, VSG=-1.35 V V (V) @ 190: VQPC=1.1 V, VSG=-1.2 V V (V) @ 191: VQPC=1.1 V, VSG=-1.05 V V (V) @ 192: VQPC=1.1 V, VSG=-0.9 V V (V) @ 193: VQPC=1.1 V, VSG=-0.75 V V (V) @ 194: VQPC=1.1 V, VSG=-0.6 V V (V) @ 195: VQPC=1.1 V, VSG=-0.45 V V (V) @ 196: VQPC=1.1 V, VSG=-0.3 V V (V) @ 197: VQPC=1.1 V, VSG=-0.15 V V (V) @ 198: VQPC=1.1 V, VSG=0 V V (V) @ 199: VQPC=1.4 V, VSG=-1.5 V V (V) @ 200: VQPC=1.4 V, VSG=-1.35 V V (V) @ 201: VQPC=1.4 V, VSG=-1.2 V V (V) @ 202: VQPC=1.4 V, VSG=-1.05 V V (V) @ 203: VQPC=1.4 V, VSG=-0.9 V V (V) @ 204: VQPC=1.4 V, VSG=-0.75 V V (V) @ 205: VQPC=1.4 V, VSG=-0.6 V V (V) @ 206: VQPC=1.4 V, VSG=-0.45 V V (V) @ 207: VQPC=1.4 V, VSG=-0.3 V V (V) @ 208: VQPC=1.4 V, VSG=-0.15 V V (V) @ 209: VQPC=1.4 V, VSG=0 V V (V) @ 210: VQPC=1.7 V, VSG=-1.5 V V (V) @ 211: VQPC=1.7 V, VSG=-1.35 V V (V) @ 212: VQPC=1.7 V, VSG=-1.2 V V (V) @ 213: VQPC=1.7 V, VSG=-1.05 V V (V) @ 214: VQPC=1.7 V, VSG=-0.9 V V (V) @ 215: VQPC=1.7 V, VSG=-0.75 V V (V) @ 216: VQPC=1.7 V, VSG=-0.6 V V (V) @ 217: VQPC=1.7 V, VSG=-0.45 V V (V) @ 218: VQPC=1.7 V, VSG=-0.3 V V (V) @ 219: VQPC=1.7 V, VSG=-0.15 V V (V) @ 220: VQPC=1.7 V, VSG=0 V V (V) @ 221: VQPC=2 V, VSG=-1.5 V V (V) @ 222: VQPC=2 V, VSG=-1.35 V V (V) @ 223: VQPC=2 V, VSG=-1.2 V V (V) @ 224: VQPC=2 V, VSG=-1.05 V V (V) @ 225: VQPC=2 V, VSG=-0.9 V V (V) @ 226: VQPC=2 V, VSG=-0.75 V V (V) @ 227: VQPC=2 V, VSG=-0.6 V V (V) @ 228: VQPC=2 V, VSG=-0.45 V V (V) @ 229: VQPC=2 V, VSG=-0.3 V V (V) @ 230: VQPC=2 V, VSG=-0.15 V V (V) @ 231: VQPC=2 V, VSG=0 V V (V) @ 232: VQPC=2.3 V, VSG=-1.5 V V (V) @ 233: VQPC=2.3 V, VSG=-1.35 V V (V) @ 234: VQPC=2.3 V, VSG=-1.2 V V (V) @ 235: VQPC=2.3 V, VSG=-1.05 V V (V) @ 236: VQPC=2.3 V, VSG=-0.9 V V (V) @ 237: VQPC=2.3 V, VSG=-0.75 V V (V) @ 238: VQPC=2.3 V, VSG=-0.6 V V (V) @ 239: VQPC=2.3 V, VSG=-0.45 V V (V) @ 240: VQPC=2.3 V, VSG=-0.3 V V (V) @ 241: VQPC=2.3 V, VSG=-0.15 V V (V) @ 242: VQPC=2.3 V, VSG=0 V V (V) @ 243: VQPC=2.6 V, VSG=-1.5 V V (V) @ 244: VQPC=2.6 V, VSG=-1.35 V V (V) @ 245: VQPC=2.6 V, VSG=-1.2 V V (V) @ 246: VQPC=2.6 V, VSG=-1.05 V V (V) @ 247: VQPC=2.6 V, VSG=-0.9 V V (V) @ 248: VQPC=2.6 V, VSG=-0.75 V V (V) @ 249: VQPC=2.6 V, VSG=-0.6 V V (V) @ 250: VQPC=2.6 V, VSG=-0.45 V V (V) @ 251: VQPC=2.6 V, VSG=-0.3 V V (V) @ 252: VQPC=2.6 V, VSG=-0.15 V V (V) @ 253: VQPC=2.6 V, VSG=0 V V (V) @ 254: VQPC=2.9 V, VSG=-1.5 V V (V) @ 255: VQPC=2.9 V, VSG=-1.35 V V (V) @ 256: VQPC=2.9 V, VSG=-1.2 V V (V) @ 257: VQPC=2.9 V, VSG=-1.05 V V (V) @ 258: VQPC=2.9 V, VSG=-0.9 V V (V) @ 259: VQPC=2.9 V, VSG=-0.75 V V (V) @ 260: VQPC=2.9 V, VSG=-0.6 V V (V) @ 261: VQPC=2.9 V, VSG=-0.45 V V (V) @ 262: VQPC=2.9 V, VSG=-0.3 V V (V) @ 263: VQPC=2.9 V, VSG=-0.15 V V (V) @ 264: VQPC=2.9 V, VSG=0 V V (V) @ 265: VQPC=3.2 V, VSG=-1.5 V V (V) @ 266: VQPC=3.2 V, VSG=-1.35 V V (V) @ 267: VQPC=3.2 V, VSG=-1.2 V V (V) @ 268: VQPC=3.2 V, VSG=-1.05 V V (V) @ 269: VQPC=3.2 V, VSG=-0.9 V V (V) @ 270: VQPC=3.2 V, VSG=-0.75 V V (V) @ 271: VQPC=3.2 V, VSG=-0.6 V V (V) @ 272: VQPC=3.2 V, VSG=-0.45 V V (V) @ 273: VQPC=3.2 V, VSG=-0.3 V V (V) @ 274: VQPC=3.2 V, VSG=-0.15 V V (V) @ 275: VQPC=3.2 V, VSG=0 V V (V) @ 276: VQPC=3.5 V, VSG=-1.5 V V (V) @ 277: VQPC=3.5 V, VSG=-1.35 V V (V) @ 278: VQPC=3.5 V, VSG=-1.2 V V (V) @ 279: VQPC=3.5 V, VSG=-1.05 V V (V) @ 280: VQPC=3.5 V, VSG=-0.9 V V (V) @ 281: VQPC=3.5 V, VSG=-0.75 V V (V) @ 282: VQPC=3.5 V, VSG=-0.6 V V (V) @ 283: VQPC=3.5 V, VSG=-0.45 V V (V) @ 284: VQPC=3.5 V, VSG=-0.3 V V (V) @ 285: VQPC=3.5 V, VSG=-0.15 V V (V) @ 286: VQPC=3.5 V, VSG=0 V V (V) @ 287: VQPC=3.8 V, VSG=-1.5 V V (V) @ 288: VQPC=3.8 V, VSG=-1.35 V V (V) @ 289: VQPC=3.8 V, VSG=-1.2 V V (V) @ 290: VQPC=3.8 V, VSG=-1.05 V V (V) @ 291: VQPC=3.8 V, VSG=-0.9 V V (V) @ 292: VQPC=3.8 V, VSG=-0.75 V V (V) @ 293: VQPC=3.8 V, VSG=-0.6 V V (V) @ 294: VQPC=3.8 V, VSG=-0.45 V V (V) @ 295: VQPC=3.8 V, VSG=-0.3 V V (V) @ 296: VQPC=3.8 V, VSG=-0.15 V V (V) @ 297: VQPC=3.8 V, VSG=0 V
145.12643432353218        145.96048633657242       34.5                     -0.04251087791850361     -0.02389279279399805     -0.0052747078923656345   0.013343376759902633     0.03196146114877656      0.050579545272176694     0.06919762913459104      0.08781571273671891      0.10643379606431201      0.125051879085561        0.1436699617657862       -0.03934837774637501     -0.02073029252959992     -0.0021122074920773247   0.016505877347563334     0.03512396198935562      0.05374204645323098      0.07236013077314443      0.09097821498198347      0.10959629909080089      0.1282143830750844       0.14683246688402707      -0.03618587886088147     -0.017567793668823956    0.001050291387677562     0.01966837629829724      0.03828646107868129      0.056904545774943534     0.07552263045895438      0.0941407152091239       0.11275880007803782      0.13137688506278875      0.14999497010385474      -0.03302338138140908     -0.014405296368851768    0.004212788550634831     0.022830873376016803     0.041448958140469117     0.06006704292099109      0.07868512783736864      0.09730321303056072      0.11592129861717934      0.13453938463765072      0.15315747103686417      -0.029860885429417533    -0.011242800803609782    0.007375283766888413     0.025993368292554393     0.044611452827170744     0.06322953748462407      0.08184762244500349      0.10046570793398876      0.1190837941637684       0.13770188125130398      0.15631996916837376      -0.02669839111401811     -0.008080307154009017    0.010537776775446454     0.029155860700587743     0.04777394470141937      0.06639202893775038      0.08501011366676992      0.10362819922901016      0.12224628597751414      0.14086437415714564      0.1594824638044679       -0.023535898504323242    -0.004917815584181959    0.013700267299701155     0.0323183501958759       0.050936433220460264     0.06955451659453024      0.08817260067818622      0.10679068597103036      0.12540877303467446      0.1440268623229044       0.1626449540003011       -0.020373407580901497    -0.0017553261925998022   0.016862755090040153     0.03548083634463069      0.054098917738200566     0.07271699957942776      0.0913350823755262       0.10995316685745238      0.1285712539040057       0.1471893443099619       0.1658074384721214       -0.017210918157473963    0.0014071610779464328    0.02002524001812238      0.03864331876855413      0.057261397561696986     0.07587947683365791      0.09449755731656012      0.11311564010355007      0.1317337265833744       0.15035181812051812      0.168969915513565        -0.014048429767293428    0.004569646589001771     0.023187722258469094     0.041805797346510354     0.06042387214453992      0.07904194725650186      0.09766002376275515      0.11627810336337002      0.13489618833554184      0.15351428105128545      0.1721323829897374       -0.010885941523121338    0.0077321312185690706    0.026350202591106646     0.0449682726166091       0.06358634157261298      0.08220441021694734      0.10082248011501113      0.11944055398815367      0.13805863576865235      0.15667672977079822      0.17529483865519999      -0.007723451993529728    0.010894616595091748     0.029512682806707283     0.04813074642883702      0.06674880753814227      0.08536686687584333      0.10398492649690183      0.12260299064777003      0.14122106628683262      0.15983916168100698      0.1784572817057242       -0.004560959190034179    0.014057105216586083     0.03267516603689541      0.051293222667191204     0.06991127473817452      0.08852932264376621      0.1071473686431269       0.12576541873719557      0.144383484552361        0.16300158155879887      0.18161971854206094      -0.001398460795091462    0.017219600215010455     0.03583765658350508      0.05445570732489355      0.0730737516007305       0.09169178937003031      0.11030982293295613      0.1289278599451375       0.1475459171234073       0.16616401813184922      0.18478217469171815      0.0017640452981957828    0.020382104572812535     0.03900015877584878      0.05761820684849553      0.07623624795069919      0.09485428226473222      0.1134723128546852       0.1320903490992898       0.1507084101459723       0.16932652007376656      0.18794468561674915      0.004926560272160549     0.0235446199709902       0.04216267504681839      0.06078072480933696      0.0793987690573355       0.09801680898774509      0.11663484893100676      0.13525289872387974      0.15387097425965818      0.17248909044664446      0.191107246561435        0.008089083872088072     0.026707145953764888     0.04532520453034314      0.0639432594875873       0.08256131141138764      0.1011793623402148       0.11979741681783851      0.1384154826155078       0.15703356937357654      0.17565168351837096      0.19426982235422025      0.011251614452889983     0.029869680079171256     0.048487743480229106     0.06710580497644328      0.0857238655594117       0.10434192732327842      0.12295999384844722      0.14157807007540768      0.16019616100911582      0.17881426922834712      0.19743239285869463      0.014414149576832923     0.03303221896591723      0.05165028715274606      0.07026835462036715      0.08888642234806543      0.1075044919984347       0.1261225659908375       0.1447406472532593       0.16335873846298898      0.18197684089582486      0.20059495356980833      0.017576686782126517     0.03619475947109981      0.054812831587108715     0.07343090358829146      0.09204897625945738      0.11066705079005107      0.12928512877418488      0.14790321203984072      0.1665213022228712       0.18513940013547275      0.20375750527433348      0.02073922412609543      0.039357299361745264     0.05797537433171221      0.07659344940657571      0.09521152517644518      0.11382960249479114      0.1324476824745757       0.15106576637713415      0.16968385533182123      0.18830194991480886      0.2069200498256265       0.023901760369376482     0.042519837404976196     0.061137914293198356     0.07975599132577887      0.09837406895762289      0.11699214783882979      0.1356102288101175       0.15422831281446675      0.17284640068098228      0.19146449281643568      0.2100825889916209       0.027064294898346553     0.04568237313760162      0.0643004512663624       0.0829185295254137       0.10153660828794427      0.12015468808192326      0.13877276957846263      0.15739085350958182      0.17600894049028964      0.19462703078917898      0.21324512419430594      0.030226827542389343     0.048844906570221294     0.06746298550486145      0.08608106455876943      0.10469914405504158      0.12331722443913934      0.14193530625812936      0.16055339008161998      0.17917147635511227      0.19778956523285002      0.2164076565015619       0.03338935839343275      0.052007437950762334     0.07062551743897985      0.08924359705424803      0.10786167708343311      0.1264797579055717       0.1450978399637206       0.16371592369110444      0.1823340093933736       0.2009520971316694       0.21957018668786302      0.03655188767097908      0.0551699676129381       0.07378804752274025      0.09240612758387395      0.11102420805054417      0.12964228924065765      0.1482603715034569       0.16687845515361321      0.18549654038035018      0.20411462717075013      0.22273271530426247      0.03971441563642763      0.05833249589313447      0.07695057616450664      0.09556865662009428      0.11418673748034788      0.1328048190034909       0.15142290145210896      0.1700409850371839       0.1886590698515354       0.207277155824931        0.22589524273881473
138.67134361355062        145.96048633657244       34.5                     -0.05747291532413227     -0.037056803094074886    -0.016640691178163455    0.0037754203824947076    0.02419153156013309      0.044607642340976916     0.06502375272130456      0.08543986269875303      0.10585597226284357      0.12627208139371462      0.14668819007732847      -0.054304765273191655    -0.03388865279680986     -0.013472540574878629    0.0069435713584084235    0.027359682987333107     0.04777579431669651      0.06819190536701472      0.08860801616081403      0.10902412670359589      0.129440236972104        0.14985634692557842      -0.051136616505139676    -0.030720503889061092    -0.010304391464249643    0.01011172074253893      0.03052783272895914      0.05094394452192308      0.0713600561735005       0.09177616774279329      0.11219227926546077      0.13260839072697944      0.15302450206539686      -0.047968469133711306    -0.027552356520834896    -0.007136244032773881    0.013279868312428965     0.03369598052758456      0.05411209266568455      0.0745282048188658       0.09494431709756426      0.11536042958724263      0.13577654230088806      0.15619265516606437      -0.04480032327269619     -0.024384210856486788    -0.00396809849739882     0.01644801379816146      0.036864126061411547     0.05728023837673188      0.07769635088685467      0.09811246377257841      0.11852857719657045      0.13894469122815567      0.15936080580331863      -0.041632179021040425    -0.02121606706440931     -7.999551022036151E-4    0.0196161568765442       0.040032268927967574     0.06044838117659114      0.08086449383045197      0.10128060716653833      0.12169672146371531      0.14211283689191972      0.16252895342731064      -0.03846403643480588     -0.018047925292822113    0.00236818589772372      0.022784297174584682     0.04320040863110917      0.06361652044828765      0.0840326329235382       0.10444874646862962      0.12486486153657139      0.14528097846653953      0.16569709732617274      -0.03529589547859014     -0.014879785620893662    0.005536324278977066     0.02595243429747653      0.046368544585296254     0.06678465541024743      0.08720076720359313      0.10761688057767613      0.12803299625297201      0.14844911484702547      0.16886523659800276      -0.03212775594806831     -0.011711647969904313    0.008704459942560592     0.02912056791209355      0.04953667617187148      0.06995278512698078      0.09036889542670422      0.11078500800999999      0.1312011240341362       0.15161724457936754      0.1720333701677606       -0.02895961735895256     -0.008543511958240027    0.011872593090239627     0.03228869794155945      0.052704802924374364     0.07312090864520254      0.09353701611659584      0.11395312685451947      0.1343692427987494       0.1547853658415272       0.17520149693615872      -0.025791478812360165    -0.005375376697201719    0.01504072451495701      0.03545682494838714      0.05587292498640483      0.07628902546947196      0.09670512796608653      0.1171212350237014       0.13753735009807316      0.15795347665097087      0.17836961625159417      -0.022623338879977292    -0.002207240570636027    0.018208855983510255     0.038624950748322784     0.05904104401830543      0.07945713677207454      0.09987323125045586      0.12028933165638245      0.1407054443394054       0.1611215760100873       0.1815377291549265       -0.019455195602302803    9.608988666167523E-4     0.021376990536113492     0.041793079073853226     0.0622091644777311       0.08262524761120804      0.10304133124513978      0.12345742166960953      0.14387352986096114      0.16428966853590649      0.1847058415023973       -0.016287046725087524    0.004129044640352141     0.024545132293246338     0.04496121560272105      0.06537729423505445      0.08579336884059233      0.10620944255619569      0.12662552366744032      0.14704162813569654      0.16745777531138073      0.18787396890839275      -0.013118890236471578    0.007297199581592348     0.027713285332339663     0.04812936634377286      0.06854544232129478      0.08896151417483239      0.10937758578554099      0.12979366694693037      0.1502097754283466       0.17062593014110894      0.1910421300154778       -0.009950725061114895    0.010465365214383973     0.03088145184682816      0.05129753448894795      0.071713613385503        0.09212969024479545      0.11254576978446604      0.13296186156988624      0.15337797959181593      0.17379413463184798      0.19421032150167872      -0.006782551540396645    0.013633540978230795     0.03404963085188765      0.054465718209416064     0.07488180390200604      0.09529789017279974      0.11571398150911771      0.1361300850116347       0.15654620869216515      0.17696235660782694      0.19737852418405238      -0.0036143713578812263   0.016801724417535267     0.037217818652456554     0.05763391180209127      0.0780500049599778       0.09846610020992619      0.11888220087835918      0.13929831126133962      0.159714435303823        0.18013057439647348      0.20054672591623085      -4.46186934334597E-4     0.019969912222546533     0.040386010679829366     0.06080210897432421      0.08121820808886694      0.10163430958691767      0.12205041562241062      0.14246652865216758      0.16288265072557828      0.18329878251581405      0.2037149227104455       0.00272199932633891      0.02313810136741963      0.0435542031823271       0.06397030523655545      0.08438640827704919      0.10480251338146204      0.12521862193206362      0.14563473544147945      0.16605085517173718      0.18646698160408343      0.20688311406340307      0.005890185556395864     0.02630628973918509      0.046722393884617915     0.06713849834984692      0.08755460367765834      0.10797071062556696      0.1283868201516754       0.14880293330807895      0.16921905099110804      0.1896351735777066       0.21005130066386934      0.009058370588392971     0.02947447620242382      0.04989058181335222      0.07030668769285374      0.09072279425201535      0.11113890206555979      0.13155501186298013      0.15197112444509311      0.17238724048790915      0.19280336026913347      0.2132194834913801       0.012226553866867098     0.032642660361662426     0.053058766832344534     0.073474873499183        0.09389098069833506      0.11430708889978142      0.13472319869375948      0.15513931071261883      0.17555542546653125      0.1959715431368479       0.2163876634657448       0.01539473526293287      0.03581084226896198      0.0562269492281913       0.07664305633409516      0.09705916387908084      0.11747527226357593      0.13789138197452733      0.15830749350983006      0.17872360724156605      0.1991397232645264       0.21955584133596512      0.01856291489568595      0.038979022194461393     0.05939512944208285      0.07981123681746324      0.10022734458172909      0.12064345307819732      0.1410595627042977       0.16147567384093842      0.18189178674237239      0.20230790143045346      0.22272401767077682      0.02173109300067945      0.042147200481504894     0.06256330792695         0.08297941550462651      0.10339552344663497      0.12381163204191754      0.1442277416046252       0.16464385241134183      0.18505996461632118      0.2054760781829171       0.22589219288534818      0.024899269847636102     0.04531537746856692      0.06573148508430084      0.08614759284946247      0.10656370096506249      0.12697980966543235      0.14739591918609657      0.1678120297109203       0.1882281413105874       0.20864425390359356      0.22906036727549156