% Model:              QPC-symmetric-brige.mph
% Version:            COMSOL 6.0.0.318
% Date:               Jul 8 2025, 10:29
% Dimension:          3
% Nodes:              465
% Expressions:        297
% Description:        Electric potential
% Length unit:        nm
% x                       y                        z                        V (V) @ 1: VQPC=-4 V, VSG=-1.5 V V (V) @ 2: VQPC=-4 V, VSG=-1.35 V V (V) @ 3: VQPC=-4 V, VSG=-1.2 V V (V) @ 4: VQPC=-4 V, VSG=-1.05 V V (V) @ 5: VQPC=-4 V, VSG=-0.9 V V (V) @ 6: VQPC=-4 V, VSG=-0.75 V V (V) @ 7: VQPC=-4 V, VSG=-0.6 V V (V) @ 8: VQPC=-4 V, VSG=-0.45 V V (V) @ 9: VQPC=-4 V, VSG=-0.3 V V (V) @ 10: VQPC=-4 V, VSG=-0.15 V V (V) @ 11: VQPC=-4 V, VSG=0 V V (V) @ 12: VQPC=-3.7 V, VSG=-1.5 V V (V) @ 13: VQPC=-3.7 V, VSG=-1.35 V V (V) @ 14: VQPC=-3.7 V, VSG=-1.2 V V (V) @ 15: VQPC=-3.7 V, VSG=-1.05 V V (V) @ 16: VQPC=-3.7 V, VSG=-0.9 V V (V) @ 17: VQPC=-3.7 V, VSG=-0.75 V V (V) @ 18: VQPC=-3.7 V, VSG=-0.6 V V (V) @ 19: VQPC=-3.7 V, VSG=-0.45 V V (V) @ 20: VQPC=-3.7 V, VSG=-0.3 V V (V) @ 21: VQPC=-3.7 V, VSG=-0.15 V V (V) @ 22: VQPC=-3.7 V, VSG=0 V V (V) @ 23: VQPC=-3.4 V, VSG=-1.5 V V (V) @ 24: VQPC=-3.4 V, VSG=-1.35 V V (V) @ 25: VQPC=-3.4 V, VSG=-1.2 V V (V) @ 26: VQPC=-3.4 V, VSG=-1.05 V V (V) @ 27: VQPC=-3.4 V, VSG=-0.9 V V (V) @ 28: VQPC=-3.4 V, VSG=-0.75 V V (V) @ 29: VQPC=-3.4 V, VSG=-0.6 V V (V) @ 30: VQPC=-3.4 V, VSG=-0.45 V V (V) @ 31: VQPC=-3.4 V, VSG=-0.3 V V (V) @ 32: VQPC=-3.4 V, VSG=-0.15 V V (V) @ 33: VQPC=-3.4 V, VSG=0 V V (V) @ 34: VQPC=-3.1 V, VSG=-1.5 V V (V) @ 35: VQPC=-3.1 V, VSG=-1.35 V V (V) @ 36: VQPC=-3.1 V, VSG=-1.2 V V (V) @ 37: VQPC=-3.1 V, VSG=-1.05 V V (V) @ 38: VQPC=-3.1 V, VSG=-0.9 V V (V) @ 39: VQPC=-3.1 V, VSG=-0.75 V V (V) @ 40: VQPC=-3.1 V, VSG=-0.6 V V (V) @ 41: VQPC=-3.1 V, VSG=-0.45 V V (V) @ 42: VQPC=-3.1 V, VSG=-0.3 V V (V) @ 43: VQPC=-3.1 V, VSG=-0.15 V V (V) @ 44: VQPC=-3.1 V, VSG=0 V V (V) @ 45: VQPC=-2.8 V, VSG=-1.5 V V (V) @ 46: VQPC=-2.8 V, VSG=-1.35 V V (V) @ 47: VQPC=-2.8 V, VSG=-1.2 V V (V) @ 48: VQPC=-2.8 V, VSG=-1.05 V V (V) @ 49: VQPC=-2.8 V, VSG=-0.9 V V (V) @ 50: VQPC=-2.8 V, VSG=-0.75 V V (V) @ 51: VQPC=-2.8 V, VSG=-0.6 V V (V) @ 52: VQPC=-2.8 V, VSG=-0.45 V V (V) @ 53: VQPC=-2.8 V, VSG=-0.3 V V (V) @ 54: VQPC=-2.8 V, VSG=-0.15 V V (V) @ 55: VQPC=-2.8 V, VSG=0 V V (V) @ 56: VQPC=-2.5 V, VSG=-1.5 V V (V) @ 57: VQPC=-2.5 V, VSG=-1.35 V V (V) @ 58: VQPC=-2.5 V, VSG=-1.2 V V (V) @ 59: VQPC=-2.5 V, VSG=-1.05 V V (V) @ 60: VQPC=-2.5 V, VSG=-0.9 V V (V) @ 61: VQPC=-2.5 V, VSG=-0.75 V V (V) @ 62: VQPC=-2.5 V, VSG=-0.6 V V (V) @ 63: VQPC=-2.5 V, VSG=-0.45 V V (V) @ 64: VQPC=-2.5 V, VSG=-0.3 V V (V) @ 65: VQPC=-2.5 V, VSG=-0.15 V V (V) @ 66: VQPC=-2.5 V, VSG=0 V V (V) @ 67: VQPC=-2.2 V, VSG=-1.5 V V (V) @ 68: VQPC=-2.2 V, VSG=-1.35 V V (V) @ 69: VQPC=-2.2 V, VSG=-1.2 V V (V) @ 70: VQPC=-2.2 V, VSG=-1.05 V V (V) @ 71: VQPC=-2.2 V, VSG=-0.9 V V (V) @ 72: VQPC=-2.2 V, VSG=-0.75 V V (V) @ 73: VQPC=-2.2 V, VSG=-0.6 V V (V) @ 74: VQPC=-2.2 V, VSG=-0.45 V V (V) @ 75: VQPC=-2.2 V, VSG=-0.3 V V (V) @ 76: VQPC=-2.2 V, VSG=-0.15 V V (V) @ 77: VQPC=-2.2 V, VSG=0 V V (V) @ 78: VQPC=-1.9 V, VSG=-1.5 V V (V) @ 79: VQPC=-1.9 V, VSG=-1.35 V V (V) @ 80: VQPC=-1.9 V, VSG=-1.2 V V (V) @ 81: VQPC=-1.9 V, VSG=-1.05 V V (V) @ 82: VQPC=-1.9 V, VSG=-0.9 V V (V) @ 83: VQPC=-1.9 V, VSG=-0.75 V V (V) @ 84: VQPC=-1.9 V, VSG=-0.6 V V (V) @ 85: VQPC=-1.9 V, VSG=-0.45 V V (V) @ 86: VQPC=-1.9 V, VSG=-0.3 V V (V) @ 87: VQPC=-1.9 V, VSG=-0.15 V V (V) @ 88: VQPC=-1.9 V, VSG=0 V V (V) @ 89: VQPC=-1.6 V, VSG=-1.5 V V (V) @ 90: VQPC=-1.6 V, VSG=-1.35 V V (V) @ 91: VQPC=-1.6 V, VSG=-1.2 V V (V) @ 92: VQPC=-1.6 V, VSG=-1.05 V V (V) @ 93: VQPC=-1.6 V, VSG=-0.9 V V (V) @ 94: VQPC=-1.6 V, VSG=-0.75 V V (V) @ 95: VQPC=-1.6 V, VSG=-0.6 V V (V) @ 96: VQPC=-1.6 V, VSG=-0.45 V V (V) @ 97: VQPC=-1.6 V, VSG=-0.3 V V (V) @ 98: VQPC=-1.6 V, VSG=-0.15 V V (V) @ 99: VQPC=-1.6 V, VSG=0 V V (V) @ 100: VQPC=-1.3 V, VSG=-1.5 V V (V) @ 101: VQPC=-1.3 V, VSG=-1.35 V V (V) @ 102: VQPC=-1.3 V, VSG=-1.2 V V (V) @ 103: VQPC=-1.3 V, VSG=-1.05 V V (V) @ 104: VQPC=-1.3 V, VSG=-0.9 V V (V) @ 105: VQPC=-1.3 V, VSG=-0.75 V V (V) @ 106: VQPC=-1.3 V, VSG=-0.6 V V (V) @ 107: VQPC=-1.3 V, VSG=-0.45 V V (V) @ 108: VQPC=-1.3 V, VSG=-0.3 V V (V) @ 109: VQPC=-1.3 V, VSG=-0.15 V V (V) @ 110: VQPC=-1.3 V, VSG=0 V V (V) @ 111: VQPC=-1 V, VSG=-1.5 V V (V) @ 112: VQPC=-1 V, VSG=-1.35 V V (V) @ 113: VQPC=-1 V, VSG=-1.2 V V (V) @ 114: VQPC=-1 V, VSG=-1.05 V V (V) @ 115: VQPC=-1 V, VSG=-0.9 V V (V) @ 116: VQPC=-1 V, VSG=-0.75 V V (V) @ 117: VQPC=-1 V, VSG=-0.6 V V (V) @ 118: VQPC=-1 V, VSG=-0.45 V V (V) @ 119: VQPC=-1 V, VSG=-0.3 V V (V) @ 120: VQPC=-1 V, VSG=-0.15 V V (V) @ 121: VQPC=-1 V, VSG=0 V V (V) @ 122: VQPC=-0.7 V, VSG=-1.5 V V (V) @ 123: VQPC=-0.7 V, VSG=-1.35 V V (V) @ 124: VQPC=-0.7 V, VSG=-1.2 V V (V) @ 125: VQPC=-0.7 V, VSG=-1.05 V V (V) @ 126: VQPC=-0.7 V, VSG=-0.9 V V (V) @ 127: VQPC=-0.7 V, VSG=-0.75 V V (V) @ 128: VQPC=-0.7 V, VSG=-0.6 V V (V) @ 129: VQPC=-0.7 V, VSG=-0.45 V V (V) @ 130: VQPC=-0.7 V, VSG=-0.3 V V (V) @ 131: VQPC=-0.7 V, VSG=-0.15 V V (V) @ 132: VQPC=-0.7 V, VSG=0 V V (V) @ 133: VQPC=-0.4 V, VSG=-1.5 V V (V) @ 134: VQPC=-0.4 V, VSG=-1.35 V V (V) @ 135: VQPC=-0.4 V, VSG=-1.2 V V (V) @ 136: VQPC=-0.4 V, VSG=-1.05 V V (V) @ 137: VQPC=-0.4 V, VSG=-0.9 V V (V) @ 138: VQPC=-0.4 V, VSG=-0.75 V V (V) @ 139: VQPC=-0.4 V, VSG=-0.6 V V (V) @ 140: VQPC=-0.4 V, VSG=-0.45 V V (V) @ 141: VQPC=-0.4 V, VSG=-0.3 V V (V) @ 142: VQPC=-0.4 V, VSG=-0.15 V V (V) @ 143: VQPC=-0.4 V, VSG=0 V V (V) @ 144: VQPC=-0.1 V, VSG=-1.5 V V (V) @ 145: VQPC=-0.1 V, VSG=-1.35 V V (V) @ 146: VQPC=-0.1 V, VSG=-1.2 V V (V) @ 147: VQPC=-0.1 V, VSG=-1.05 V V (V) @ 148: VQPC=-0.1 V, VSG=-0.9 V V (V) @ 149: VQPC=-0.1 V, VSG=-0.75 V V (V) @ 150: VQPC=-0.1 V, VSG=-0.6 V V (V) @ 151: VQPC=-0.1 V, VSG=-0.45 V V (V) @ 152: VQPC=-0.1 V, VSG=-0.3 V V (V) @ 153: VQPC=-0.1 V, VSG=-0.15 V V (V) @ 154: VQPC=-0.1 V, VSG=0 V V (V) @ 155: VQPC=0.2 V, VSG=-1.5 V V (V) @ 156: VQPC=0.2 V, VSG=-1.35 V V (V) @ 157: VQPC=0.2 V, VSG=-1.2 V V (V) @ 158: VQPC=0.2 V, VSG=-1.05 V V (V) @ 159: VQPC=0.2 V, VSG=-0.9 V V (V) @ 160: VQPC=0.2 V, VSG=-0.75 V V (V) @ 161: VQPC=0.2 V, VSG=-0.6 V V (V) @ 162: VQPC=0.2 V, VSG=-0.45 V V (V) @ 163: VQPC=0.2 V, VSG=-0.3 V V (V) @ 164: VQPC=0.2 V, VSG=-0.15 V V (V) @ 165: VQPC=0.2 V, VSG=0 V V (V) @ 166: VQPC=0.5 V, VSG=-1.5 V V (V) @ 167: VQPC=0.5 V, VSG=-1.35 V V (V) @ 168: VQPC=0.5 V, VSG=-1.2 V V (V) @ 169: VQPC=0.5 V, VSG=-1.05 V V (V) @ 170: VQPC=0.5 V, VSG=-0.9 V V (V) @ 171: VQPC=0.5 V, VSG=-0.75 V V (V) @ 172: VQPC=0.5 V, VSG=-0.6 V V (V) @ 173: VQPC=0.5 V, VSG=-0.45 V V (V) @ 174: VQPC=0.5 V, VSG=-0.3 V V (V) @ 175: VQPC=0.5 V, VSG=-0.15 V V (V) @ 176: VQPC=0.5 V, VSG=0 V V (V) @ 177: VQPC=0.8 V, VSG=-1.5 V V (V) @ 178: VQPC=0.8 V, VSG=-1.35 V V (V) @ 179: VQPC=0.8 V, VSG=-1.2 V V (V) @ 180: VQPC=0.8 V, VSG=-1.05 V V (V) @ 181: VQPC=0.8 V, VSG=-0.9 V V (V) @ 182: VQPC=0.8 V, VSG=-0.75 V V (V) @ 183: VQPC=0.8 V, VSG=-0.6 V V (V) @ 184: VQPC=0.8 V, VSG=-0.45 V V (V) @ 185: VQPC=0.8 V, VSG=-0.3 V V (V) @ 186: VQPC=0.8 V, VSG=-0.15 V V (V) @ 187: VQPC=0.8 V, VSG=0 V V (V) @ 188: VQPC=1.1 V, VSG=-1.5 V V (V) @ 189: VQPC=1.1 V, VSG=-1.35 V V (V) @ 190: VQPC=1.1 V, VSG=-1.2 V V (V) @ 191: VQPC=1.1 V, VSG=-1.05 V V (V) @ 192: VQPC=1.1 V, VSG=-0.9 V V (V) @ 193: VQPC=1.1 V, VSG=-0.75 V V (V) @ 194: VQPC=1.1 V, VSG=-0.6 V V (V) @ 195: VQPC=1.1 V, VSG=-0.45 V V (V) @ 196: VQPC=1.1 V, VSG=-0.3 V V (V) @ 197: VQPC=1.1 V, VSG=-0.15 V V (V) @ 198: VQPC=1.1 V, VSG=0 V V (V) @ 199: VQPC=1.4 V, VSG=-1.5 V V (V) @ 200: VQPC=1.4 V, VSG=-1.35 V V (V) @ 201: VQPC=1.4 V, VSG=-1.2 V V (V) @ 202: VQPC=1.4 V, VSG=-1.05 V V (V) @ 203: VQPC=1.4 V, VSG=-0.9 V V (V) @ 204: VQPC=1.4 V, VSG=-0.75 V V (V) @ 205: VQPC=1.4 V, VSG=-0.6 V V (V) @ 206: VQPC=1.4 V, VSG=-0.45 V V (V) @ 207: VQPC=1.4 V, VSG=-0.3 V V (V) @ 208: VQPC=1.4 V, VSG=-0.15 V V (V) @ 209: VQPC=1.4 V, VSG=0 V V (V) @ 210: VQPC=1.7 V, VSG=-1.5 V V (V) @ 211: VQPC=1.7 V, VSG=-1.35 V V (V) @ 212: VQPC=1.7 V, VSG=-1.2 V V (V) @ 213: VQPC=1.7 V, VSG=-1.05 V V (V) @ 214: VQPC=1.7 V, VSG=-0.9 V V (V) @ 215: VQPC=1.7 V, VSG=-0.75 V V (V) @ 216: VQPC=1.7 V, VSG=-0.6 V V (V) @ 217: VQPC=1.7 V, VSG=-0.45 V V (V) @ 218: VQPC=1.7 V, VSG=-0.3 V V (V) @ 219: VQPC=1.7 V, VSG=-0.15 V V (V) @ 220: VQPC=1.7 V, VSG=0 V V (V) @ 221: VQPC=2 V, VSG=-1.5 V V (V) @ 222: VQPC=2 V, VSG=-1.35 V V (V) @ 223: VQPC=2 V, VSG=-1.2 V V (V) @ 224: VQPC=2 V, VSG=-1.05 V V (V) @ 225: VQPC=2 V, VSG=-0.9 V V (V) @ 226: VQPC=2 V, VSG=-0.75 V V (V) @ 227: VQPC=2 V, VSG=-0.6 V V (V) @ 228: VQPC=2 V, VSG=-0.45 V V (V) @ 229: VQPC=2 V, VSG=-0.3 V V (V) @ 230: VQPC=2 V, VSG=-0.15 V V (V) @ 231: VQPC=2 V, VSG=0 V V (V) @ 232: VQPC=2.3 V, VSG=-1.5 V V (V) @ 233: VQPC=2.3 V, VSG=-1.35 V V (V) @ 234: VQPC=2.3 V, VSG=-1.2 V V (V) @ 235: VQPC=2.3 V, VSG=-1.05 V V (V) @ 236: VQPC=2.3 V, VSG=-0.9 V V (V) @ 237: VQPC=2.3 V, VSG=-0.75 V V (V) @ 238: VQPC=2.3 V, VSG=-0.6 V V (V) @ 239: VQPC=2.3 V, VSG=-0.45 V V (V) @ 240: VQPC=2.3 V, VSG=-0.3 V V (V) @ 241: VQPC=2.3 V, VSG=-0.15 V V (V) @ 242: VQPC=2.3 V, VSG=0 V V (V) @ 243: VQPC=2.6 V, VSG=-1.5 V V (V) @ 244: VQPC=2.6 V, VSG=-1.35 V V (V) @ 245: VQPC=2.6 V, VSG=-1.2 V V (V) @ 246: VQPC=2.6 V, VSG=-1.05 V V (V) @ 247: VQPC=2.6 V, VSG=-0.9 V V (V) @ 248: VQPC=2.6 V, VSG=-0.75 V V (V) @ 249: VQPC=2.6 V, VSG=-0.6 V V (V) @ 250: VQPC=2.6 V, VSG=-0.45 V V (V) @ 251: VQPC=2.6 V, VSG=-0.3 V V (V) @ 252: VQPC=2.6 V, VSG=-0.15 V V (V) @ 253: VQPC=2.6 V, VSG=0 V V (V) @ 254: VQPC=2.9 V, VSG=-1.5 V V (V) @ 255: VQPC=2.9 V, VSG=-1.35 V V (V) @ 256: VQPC=2.9 V, VSG=-1.2 V V (V) @ 257: VQPC=2.9 V, VSG=-1.05 V V (V) @ 258: VQPC=2.9 V, VSG=-0.9 V V (V) @ 259: VQPC=2.9 V, VSG=-0.75 V V (V) @ 260: VQPC=2.9 V, VSG=-0.6 V V (V) @ 261: VQPC=2.9 V, VSG=-0.45 V V (V) @ 262: VQPC=2.9 V, VSG=-0.3 V V (V) @ 263: VQPC=2.9 V, VSG=-0.15 V V (V) @ 264: VQPC=2.9 V, VSG=0 V V (V) @ 265: VQPC=3.2 V, VSG=-1.5 V V (V) @ 266: VQPC=3.2 V, VSG=-1.35 V V (V) @ 267: VQPC=3.2 V, VSG=-1.2 V V (V) @ 268: VQPC=3.2 V, VSG=-1.05 V V (V) @ 269: VQPC=3.2 V, VSG=-0.9 V V (V) @ 270: VQPC=3.2 V, VSG=-0.75 V V (V) @ 271: VQPC=3.2 V, VSG=-0.6 V V (V) @ 272: VQPC=3.2 V, VSG=-0.45 V V (V) @ 273: VQPC=3.2 V, VSG=-0.3 V V (V) @ 274: VQPC=3.2 V, VSG=-0.15 V V (V) @ 275: VQPC=3.2 V, VSG=0 V V (V) @ 276: VQPC=3.5 V, VSG=-1.5 V V (V) @ 277: VQPC=3.5 V, VSG=-1.35 V V (V) @ 278: VQPC=3.5 V, VSG=-1.2 V V (V) @ 279: VQPC=3.5 V, VSG=-1.05 V V (V) @ 280: VQPC=3.5 V, VSG=-0.9 V V (V) @ 281: VQPC=3.5 V, VSG=-0.75 V V (V) @ 282: VQPC=3.5 V, VSG=-0.6 V V (V) @ 283: VQPC=3.5 V, VSG=-0.45 V V (V) @ 284: VQPC=3.5 V, VSG=-0.3 V V (V) @ 285: VQPC=3.5 V, VSG=-0.15 V V (V) @ 286: VQPC=3.5 V, VSG=0 V V (V) @ 287: VQPC=3.8 V, VSG=-1.5 V V (V) @ 288: VQPC=3.8 V, VSG=-1.35 V V (V) @ 289: VQPC=3.8 V, VSG=-1.2 V V (V) @ 290: VQPC=3.8 V, VSG=-1.05 V V (V) @ 291: VQPC=3.8 V, VSG=-0.9 V V (V) @ 292: VQPC=3.8 V, VSG=-0.75 V V (V) @ 293: VQPC=3.8 V, VSG=-0.6 V V (V) @ 294: VQPC=3.8 V, VSG=-0.45 V V (V) @ 295: VQPC=3.8 V, VSG=-0.3 V V (V) @ 296: VQPC=3.8 V, VSG=-0.15 V V (V) @ 297: VQPC=3.8 V, VSG=0 V
145.12643432353218        145.96048633657242       34.5                     0.3631939811195707       0.38181206996815037      0.40043015883626903      0.4190482477018528       0.43766633654214593      0.4562844253339663       0.4749025140539574       0.4935206026788327       0.5121386911856072       0.5307567795518227       0.5493748677557662       0.3663564955659423       0.384974585280097        0.40359267504403573      0.42221076482847         0.440828854602543        0.45944694433425715      0.4780650339909456       0.4966831235397627       0.515301212948189        0.5339193021845325       0.5525373912184134       0.369519009926519        0.38813710052792844      0.40675519121182685      0.4253732819408429       0.4439913726749821       0.4626094633722672       0.48122755398947914      0.4998456444829674       0.5184637348094925       0.5370818249270819       0.5556999147958481       0.3726815241765705       0.3912996156777681       0.4099177072961864       0.4285357989855227       0.4471538906956254       0.4657719823733917       0.48439007396384126      0.5030081654113121       0.5216262566607353       0.5402443476589094       0.5588624383557237       0.3758440382853331       0.3944621306869525       0.41308022324188787      0.43169831589412866      0.45031640858242544      0.4689345012415021       0.48755259380351845      0.5061706861997399       0.5247887783623139       0.5434068702260539       0.562024961730138        0.3790065522162387       0.39762464550412846      0.4162427389818839       0.4348608325831323       0.45347892623475305      0.47209701985843566      0.4907151133726064       0.5093332066946425       0.5279512997432367       0.5465693924407611       0.5651874847154923       0.38216906592779454      0.40078716007023985      0.4194052544383759       0.43802334895502854      0.4566414435346816       0.4752595380854346       0.49387763251145056      0.5124957267157857       0.5311138206034085       0.5497319140842035       0.5683500070757622       0.3853315793752762       0.40394967432059553      0.42256776952531394      0.44118586490128897      0.45980396035044285      0.47842205576714736      0.49704015104125204      0.5156582460615716       0.5342763407196063       0.5528944349132229       0.5715125285500182       0.38849409251328615      0.4071121881881864       0.4257302841525189       0.4443483803073729       0.462966476542385        0.4815845727386012       0.5002026687720983       0.5188207645181586       0.5374388598557008       0.5560569546716349       0.5746750488647732       0.39165660529913826      0.4102747016081716       0.42889279823141113      0.4475108950597822       0.46612899197145174      0.4847470888351572       0.503365185514425        0.5219832818724184       0.5406013777770529       0.5592194731059653       0.5778375677509118       0.3948191176968444       0.41343721452331056      0.43205531168201416      0.4506734090547948       0.46929150650972884      0.4879096039049204       0.5065277010932825       0.5251457979279986       0.5437638942682389       0.5623819899846401       0.5810000849640828       0.3979816296813212       0.4165997268897826       0.43521782444058793      0.4538359222080279       0.4724540200520325       0.49107211782238525      0.5096902153639947       0.5283083125228623       0.5469264091522609       0.5655445051185894       0.58416260030637         0.4011441412422522       0.41976223868268925      0.4383803364669158       0.4569984344636391       0.475616532527085        0.4942346305015728       0.5128527282271624       0.5314708255459766       0.5500889223086782       0.5687070183804943       0.5873251136462712       0.404306652387033        0.4229247499003781       0.44154284775014074      0.4601609458017464       0.4787790439065359       0.4973971419065948       0.5160152396406401       0.5346333369505144       0.5532514336877445       0.5718695297195537       0.5904876249337667       0.4074691631422347       0.4260872605668393       0.4447053583121272       0.4633234562427687       0.48194155421023166      0.5005596520577621       0.5191777496263391       0.5377958467611451       0.5564139433179944       0.575032039169114        0.5936501342077446       0.4106316735532504       0.42924977073163617      0.447867868207652        0.46648596584779617      0.48510406350667784      0.5037221610320148       0.5223402582704886       0.540958355073996        0.5595764513057429       0.5781945468456096       0.5968126415943138       0.4137941836820634       0.4324122804672826       0.4510303775212595       0.46964847471479965      0.48826657190846146      0.5068846689574371       0.5255027657171467       0.5441208620490917       0.5627389578264501       0.5813570529388843       0.5999751472961493       0.41695669360340315      0.4355747898643869       0.4541928863612102       0.4728109829712133       0.4914290795633326       0.5100471760027375       0.5286652721560313       0.547283367896567        0.5659014631094155       0.5845195576955242       0.6031376515747154       0.4201192033998138       0.43873729902526154      0.4573553948514365       0.47597349076406326      0.494591586642375        0.5132096823634062       0.5318277778066908       0.5504458728589483       0.5690639674183542       0.587682061398005        0.6063001547282953       0.4232817131563089       0.44189980805691687      0.4605179031226844       0.47913599824911496      0.49775409332708204      0.5163721882467059       0.5349902829014781       0.5536083771922731       0.572226471030897        0.5908445643428635       0.609462657069177        0.426444222955286        0.4450623170643424       0.46368041130401877      0.48229850558050724      0.5009165997970834       0.5195346938575279       0.538152787669643        0.5567708811485883       0.5753889742197267       0.5940070668207524       0.6126251589029408       0.42960673287224377      0.4482248261448105       0.46684291951563056      0.48546101290201926      0.5040791062198878       0.5226971993866738       0.5413152923242677       0.5599333849617012       0.5785514772373407       0.5971695691004388       0.6157876605119169       0.4327692429726381       0.4513873353836553       0.4700054278635126       0.4886235203406656       0.5072416127434289       0.5258597050024314       0.5444777970529808       0.5630958888371544       0.5817139803054275       0.6003320714177175       0.6189501621437877       0.4359317533099895       0.4545498448516925       0.47316793643621025      0.4917860280028026       0.5104041194916065       0.5290222108456243       0.5476403020125917       0.5662583929465372       0.5848764836089282       0.6034945739692972       0.6221126640053434       0.4390942639251858       0.4577123546041768       0.47633044530348645      0.4949485359725827       0.5135666265625776       0.5321847170278076       0.55080280732725         0.5694208974256398       0.5880389872942109       0.6066570769109945       0.6252751662606879       0.4422567748467625       0.4608748646810433       0.4794929545165898       0.49811104431229813      0.5167291340292531       0.5353472236319583       0.5539653130893551       0.5725834023755885       0.5912014914704133       0.609819580359247        0.6284376690328679       0.44541928609191617      0.46403737510808285      0.4826554641096673       0.5012735530640983       0.5198916419413616       0.5385097307149089       0.55712781936237         0.5757459078660179       0.5943639962129279       0.612982084394845        0.631600172407762
138.67134361355062        145.96048633657244       34.5                     0.3114082683208329       0.3318243848171988       0.35224050131099527      0.37265661777503784      0.39307273418144106      0.41348885050199435      0.4339049667085356       0.454321082773325        0.474737198669397        0.49515331437089793      0.5155694298533908       0.31457643212126085      0.334992549569579        0.3554086670510977       0.3758247845307177       0.3962409019715953       0.4166570193357001       0.4370731365844388       0.45748925367930643      0.47790537058255256      0.49832148725783865      0.5187376036708546       0.3177445958830918       0.338160714306244        0.3585768328012479       0.37899295132418453      0.39940906982814683      0.4198251882640327       0.44024130658146166      0.46065742472978793      0.4810735426591509       0.5014896603215375       0.5219057776717901       0.3209127595911042       0.3413288790020881       0.36174499852592934      0.38216111810900455      0.4025772376932641       0.42299335721730114      0.44340947661763386      0.4638255958301457       0.4842417147916229       0.5046578334413001       0.525073951722334        0.32408092322524407      0.34449704362428857      0.36491316417875114      0.38532928482449436      0.40574540549133253      0.42616152610443014      0.4465776465860093       0.4669937668573128       0.487409886840708        0.5078260064618099       0.5282421256515029       0.32724908676061326      0.3476652081321632       0.3680813297021559       0.38849745139525954      0.40891357312833143      0.429329694812185        0.4497458163537975       0.47016193765887215      0.49057805863460224      0.5109941791924479       0.5314102992507728       0.33041725016792556      0.3508333724777357       0.371249495028076        0.39166561773195485      0.4120817404927162       0.4324978632062235       0.4529139857636317       0.4733301080546247       0.4937462299709081       0.5141623514097142       0.5345784722770883       0.3335854134145645       0.35400153660718126      0.3744176600798229       0.3948337837336535       0.4152499074583176       0.4356660311345757       0.4560821546376997       0.47649827784143106      0.49691440062225833      0.5173305228636859       0.5377466444601859       0.3367535764663079       0.3571697004633202       0.37758582477541586      0.3980019492921011       0.4184180738895985       0.4388341984339843       0.4592503227852215       0.4796664468018773       0.5000825703461881       0.5204986932890973       0.5409148155148402       0.3399217392897133       0.3603378639891295       0.380753989032373        0.40117011429789595      0.4215862396493386       0.44200236493916634      0.4624184900133449       0.48283461471680283      0.5032507388992594       0.523666862420963        0.5440829851578485       0.34308990185502763      0.3635060271321289       0.383922152773729        0.40433827864831695      0.4247544046083856       0.44517053049456223      0.4655866561409041       0.48600278138103303      0.5064189060546427       0.5268350300138265       0.5472511531286803       0.3462580641393683       0.36667418984921907      0.3870903159347583       0.4075064422560803       0.42792256865656475      0.4483386949674647       0.46875482101374555      0.48917094662078314      0.5095870716214045       0.5300031958626453       0.5504193192116311       0.3494262261297596       0.3698423521114231       0.39025847846958894      0.41067460505798414      0.43109073171344525      0.4515068582609071       0.47192298451966436      0.49233911031048005      0.5127552354629673       0.5331713598225674       0.5535874832565117       0.35259438782560437      0.37301051390781287      0.3934266403567438       0.4138427670221548       0.43425889373732657      0.4546750203243519       0.47509114660067675      0.49550727238641873      0.5159233975118661       0.5363395218244571       0.5567556451946032       0.3557625492401495       0.37617867524799586      0.39659480160269506      0.41701092815269086      0.4374270547309318       0.45784318116034517      0.4782593072604793       0.49867543285482646      0.5190915577781974       0.539507681883469        0.5599238050470747       0.35893071040065166      0.37934683616265547      0.399762962242751        0.4201790884908219       0.44059521474273833      0.4610113408258788       0.4814274665656985       0.5018435917928369       0.5222597163501447       0.5426758400989902       0.563091962924263        0.36209887134714774      0.38251499670200845      0.40293112233906203      0.42334724811231206      0.4437633738636194       0.4641794994281313       0.4845956246405991       0.505011749342074        0.525427873386404        0.5458439966459283       0.566260119015859        0.3652670321299799       0.38568315693236765      0.40609928197601225      0.4265154071214863       0.4469315322193368       0.46734765711528803      0.48776378165615647      0.5081799056959811       0.5285960291018413       0.5490121517588269       0.5694282735737397       0.36843519280641407      0.3888513169313186       0.4092674412537264       0.4296835656428567       0.4500996899601216       0.4705158140639856       0.49093193781535793      0.5113480610830458       0.5317641837488081       0.5521803057115515       0.5725964268903148       0.3716033534368377       0.3920194767822289       0.41243560028066306      0.432851723811626        0.4532678472489725       0.4736839704653639       0.49410009333704874      0.514516215748585        0.5349323375970958       0.5553484587956835       0.5757645792757325       0.37477151408102416      0.39518763656881184      0.41560375916630987      0.4360198817643838       0.45643600425029435      0.47685212651165565      0.49726824844056505      0.5176843699375826       0.5381004909152007       0.558516611300518        0.5789327310369172       0.3779396747948863       0.3983557963703754       0.4187719180148163       0.439188039631063        0.45960416112017033      0.4800202823848299       0.5004364033328585       0.5208525238804552       0.5412686439549366       0.5616847634967468       0.5821008824605777       0.38110783562798956      0.4015239562581523       0.42194007692009927      0.44235619752882804      0.46277231799906343      0.4831884382481832       0.5036045581990821       0.5240206777827652       0.5444367969404308       0.5648529156248898       0.5852690338012332       0.3842759966219458       0.4046921162928956       0.42510823596265723      0.4455243555581313       0.4659404750071936       0.4863565942411129       0.5067727131968562       0.5271888318190809       0.5476049500616578       0.5680210678885964       0.5884371852743415       0.38744415780967245      0.4078602765236997       0.4282763952080023       0.4486925138008442       0.46910863224242705      0.48952475047684907      0.5099408684539053       0.5303569861305656       0.550773103472025        0.5711892204522332       0.5916053370538994       0.39061231921538175      0.4110284369878704       0.4314445547064887       0.4518606723201051       0.47227678978022747      0.4926929070425625       0.5131090240683668       0.533525140825508        0.5539412572891167       0.574357373441819        0.5947734892735134       0.39378048085513484      0.41419659771158834      0.4346127144941696       0.4550288311614461       0.4754449476751127       0.4958610640011887       0.5162771801110051       0.5366932959819124       0.5571094115976308       0.5775255269482443       0.5979416420298218